# vtk DataFile Version 1.0
output.vtk
ASCII

DATASET UNSTRUCTURED_GRID
POINTS 54 double
-1 -1 1
-1 1 1
-1 -1 -1
-1 1 -1
1 -1 1
1 1 1
1 -1 -1
1 1 -1
-1 -1 0
-1 0 1
-1 1 0
-1 0 -1
0 -1 -1
0 1 -1
1 0 -1
1 -1 0
1 1 0
1 0 1
0 -1 1
0 1 1
0 1 0
0 -1 0
0 0 1
1 0 0
0 0 -1
-1 0 0
0.5 1 -1
0.5 -1 1
0.5 -1 -1
0.5 1 1
0.5 1 0
0.5 -1 0
0.5 0 1
0.5 0 -1
-1 1 -0.5
1 -1 -0.5
-1 -1 -0.5
1 1 -0.5
0 1 -0.5
0 -1 -0.5
1 0 -0.5
-1 0 -0.5
0.5 -1 -0.5
0.5 1 -0.5
-1 -1 0.5
1 1 0.5
-1 1 0.5
1 -1 0.5
0 1 0.5
0 -1 0.5
1 0 0.5
-1 0 0.5
0.5 1 0.5
0.5 -1 0.5
CELLS 5 25 
4 43 38 20 30
4 38 34 10 20
4 37 43 30 16
4 26 13 38 43
4 30 20 48 52
CELL_TYPES 5
9
9
9
9
9
CELL_DATA 5
SCALARS fixed int
LOOKUP_TABLE default
0
1
1
1
1
